 Gaussian 09, Revision D.01,
 Gaussian 09:  ES64L-G09RevD.01 24-Apr-2013

 ----------------------------------------------
 #M06/genecp denfit opt=(calcfc,ts,maxcyc=1000)
 ----------------------------------------------

 --------------------------
 step 3 (attempt 1) cycle 1
 --------------------------
 Symbolic Z-matrix:
 Charge =  1 Multiplicity = 1

 SCF Done:  E(RM06) =  -1733.40430028     A.U. after   26 cycles

  Exact polarizability:   0.000   0.000   0.000   0.000   0.000   0.000
 Approx polarizability: 581.715  13.752 510.611 -55.591  33.725 432.939

 SCF Done:  E(RM06) =  -1733.40428494     A.U. after   15 cycles
 SCF Done:  E(RM06) =  -1733.40428601     A.U. after   12 cycles
 Optimization completed.
    -- Stationary point found.

                         Standard orientation:
 ---------------------------------------------------------------------
 Center     Atomic      Atomic             Coordinates (Angstroms)
 Number     Number       Type             X           Y           Z
 ---------------------------------------------------------------------
      1          6           0       -3.869697    2.467975   -0.354959
      2          6           0       -2.952908    2.867560   -1.497616
      3          6           0       -1.704322    1.989014   -1.500981
      4          6           0       -1.025007    1.971240   -0.159733
      5          6           0       -1.687855    2.150159    1.006342
      6          6           0       -3.170573    2.371159    0.980782
      7          8           0       -3.791800    2.411399    2.027384
      8          6           0       -1.089896    2.066027    2.374672
      9          1           0       -1.218893    3.007677    2.926109
     10          1           0       -1.616246    1.305042    2.966886
     11          1           0       -0.026602    1.797753    2.349081
     12          1           0       -4.307297    1.473289   -0.553441
     13          1           0       -4.722494    3.147241   -0.236437
     14          1           0       -2.662533    3.923702   -1.395740
     15          1           0       -3.475104    2.777710   -2.459033
     16          1           0       -1.012149    2.294023   -2.296763
     17          1           0       -1.990171    0.951581   -1.755043
     18          6           0        2.402252    2.293195   -1.900110
     19          1           0        1.583862    2.218721   -2.626767
     20          1           0        3.079561    1.444648   -2.064626
     21          1           0        2.969703    3.211510   -2.121379
     22          6           0        1.920209    2.324098   -0.475499
     23          6           0        0.779919    3.103838   -0.119607
     24          6           0        3.017552    2.301653    0.559621
     25          6           0        0.299936    4.219863   -0.995732
     26          1           0       -0.637264    4.656257   -0.637523
     27          1           0        1.081360    4.994716   -0.931996
     28          1           0        0.200271    3.960006   -2.054107
     29          1           0        0.716912    3.337734    0.945860
     30          1           0        3.758905    1.524671    0.310655
     31          1           0        2.614441    2.087011    1.564959
     32          8           0        3.592352    3.593761    0.505245
     33          1           0        4.353572    3.648499    1.100353
     34         46           0        0.615299    0.698789   -0.169634
     35          6           0       -0.112738   -2.199908   -0.668076
     36          6           0       -0.781292   -3.384084   -0.951384
     37          6           0       -2.141140   -3.451721   -0.666553
     38          6           0       -2.767211   -2.341466   -0.112398
     39          6           0       -4.230410   -2.409197    0.237893
     40          6           0       -2.022580   -1.188506    0.125843
     41          7           0       -0.725227   -1.117594   -0.153592
     42          1           0       -2.710575   -4.357094   -0.871761
     43          1           0       -0.244328   -4.228191   -1.376724
     44          1           0       -2.477094   -0.295130    0.555833
     45          6           0        1.340627   -2.053611   -0.819645
     46          8           0        2.023583   -3.044540   -1.377930
     47          7           0        1.993280   -1.042783   -0.362253
     48          6           0        3.394634   -2.561162   -1.442008
     49          1           0        4.050450   -3.409582   -1.235267
     50          1           0        3.563235   -2.208897   -2.467052
     51          6           0        3.422521   -1.436868   -0.401901
     52          6           0        3.943635   -1.879131    0.993058
     53          1           0        4.027438   -0.585203   -0.747187
     54          9           0       -4.932638   -2.921293   -0.777494
     55          9           0       -4.726356   -1.203039    0.519820
     56          9           0       -4.423272   -3.196792    1.299449
     57          6           0        3.786806   -0.746245    2.005123
     58          1           0        4.126747   -1.082891    2.993665
     59          1           0        4.400906    0.123067    1.732257
     60          1           0        2.741177   -0.422148    2.105045
     61          6           0        3.195930   -3.106439    1.517709
     62          1           0        3.279074   -3.977628    0.853609
     63          1           0        3.614147   -3.403191    2.488542
     64          1           0        2.128643   -2.895974    1.681199
     65          6           0        5.433998   -2.199359    0.856682
     66          1           0        5.855947   -2.441188    1.841197
     67          1           0        5.631280   -3.062192    0.206245
     68          1           0        5.995961   -1.340542    0.460712
 ---------------------------------------------------------------------

 The electronic state is 1-A.
 Alpha  occ. eigenvalues --  -24.94975 -24.94588 -24.94379 -19.42404 -19.34920
 Alpha  occ. eigenvalues --  -19.32034 -14.59264 -14.56006 -10.63207 -10.50658
 Alpha  occ. eigenvalues --  -10.46388 -10.45080 -10.44082 -10.44079 -10.42871
 Alpha  occ. eigenvalues --  -10.42815 -10.42760 -10.42250 -10.42055 -10.41987
 Alpha  occ. eigenvalues --  -10.41131 -10.40662 -10.38170 -10.37720 -10.37302
 Alpha  occ. eigenvalues --  -10.36578 -10.36153 -10.35764 -10.35077 -10.34595
 Alpha  occ. eigenvalues --  -10.34452 -10.34442 -10.34412  -3.47011  -2.21311
 Alpha  occ. eigenvalues --   -2.21177  -2.18096  -1.47376  -1.38899  -1.38423
 Alpha  occ. eigenvalues --   -1.27710  -1.16826  -1.15911  -1.13679  -1.07739
 Alpha  occ. eigenvalues --   -0.99120  -0.97782  -0.97329  -0.95941  -0.94783
 Alpha  occ. eigenvalues --   -0.90239  -0.89939  -0.87770  -0.86049  -0.84908
 Alpha  occ. eigenvalues --   -0.82355  -0.81508  -0.81029  -0.80747  -0.80135
 Alpha  occ. eigenvalues --   -0.80054  -0.78277  -0.77754  -0.74065  -0.73192
 Alpha  occ. eigenvalues --   -0.73119  -0.72688  -0.72263  -0.71058  -0.69637
 Alpha  occ. eigenvalues --   -0.67588  -0.66303  -0.66199  -0.65621  -0.64647
 Alpha  occ. eigenvalues --   -0.62637  -0.61665  -0.61165  -0.60885  -0.60614
 Alpha  occ. eigenvalues --   -0.60422  -0.60000  -0.59828  -0.59487  -0.59243
 Alpha  occ. eigenvalues --   -0.58136  -0.57906  -0.57467  -0.56965  -0.56520
 Alpha  occ. eigenvalues --   -0.56465  -0.56165  -0.55893  -0.55665  -0.54624
 Alpha  occ. eigenvalues --   -0.54472  -0.54191  -0.53897  -0.53265  -0.52951
 Alpha  occ. eigenvalues --   -0.52248  -0.52211  -0.52114  -0.51677  -0.51607
 Alpha  occ. eigenvalues --   -0.51422  -0.51090  -0.50353  -0.49733  -0.49517
 Alpha  occ. eigenvalues --   -0.49415  -0.49079  -0.48512  -0.48314  -0.48122
 Alpha  occ. eigenvalues --   -0.47506  -0.46908  -0.46594  -0.46214  -0.45171
 Alpha  occ. eigenvalues --   -0.45014  -0.44810  -0.43584  -0.43287  -0.43209
 Alpha  occ. eigenvalues --   -0.41839  -0.41335  -0.40774  -0.40016  -0.38814
 Alpha  occ. eigenvalues --   -0.37837  -0.36153  -0.35501
 Alpha virt. eigenvalues --   -0.21040  -0.18168  -0.17732  -0.16696  -0.13317
 Alpha virt. eigenvalues --   -0.12331  -0.12136  -0.11418  -0.10676  -0.10520
 Alpha virt. eigenvalues --   -0.10315  -0.09986  -0.09852  -0.09674  -0.09485

 Mulliken charges:
               1
     1  C   -0.210995
     2  C   -0.350931
     3  C    0.336306
     4  C   -1.236104
     5  C    0.423200
     6  C   -0.405533
     7  O   -0.300093
     8  C   -0.243088
     9  H    0.261633
    10  H    0.267443
    11  H    0.215079
    12  H    0.248270
    13  H    0.259499
    14  H    0.221356
    15  H    0.228521
    16  H    0.217337
    17  H    0.239065
    18  C   -0.362919
    19  H    0.235015
    20  H    0.227851
    21  H    0.277964
    22  C   -0.326764
    23  C   -0.456397
    24  C    0.199077
    25  C   -0.589139
    26  H    0.250550
    27  H    0.275821
    28  H    0.232901
    29  H    0.253651
    30  H    0.172322
    31  H    0.213395
    32  O   -0.630352
    33  H    0.529008
    34  Pd  -0.438243
    35  C   -0.153453
    36  C   -0.296079
    37  C    0.046649
    38  C   -0.826626
    39  C    1.728687
    40  C   -0.299689
    41  N    0.241968
    42  H    0.269700
    43  H    0.268485
    44  H    0.241592
    45  C   -0.129189
    46  O   -0.236326
    47  N   -0.013685
    48  C   -0.230755
    49  H    0.236318
    50  H    0.240270
    51  C    0.072539
    52  C   -0.917029
    53  H    0.210057
    54  F   -0.254306
    55  F   -0.315256
    56  F   -0.232775
    57  C   -0.408353
    58  H    0.237294
    59  H    0.198702
    60  H    0.227008
    61  C   -0.202703
    62  H    0.228883
    63  H    0.240948
    64  H    0.226270
    65  C   -0.322084
    66  H    0.243287
    67  H    0.217928
    68  H    0.227015
 Sum of Mulliken charges =   1.00000

 Dipole moment (field-independent basis, Debye):
    X=              7.6134    Y=             -1.8958    Z=             -4.0868  Tot=              8.8465
 Quadrupole moment (field-independent basis, Debye-Ang):
   XX=           -176.5498   YY=           -168.4283   ZZ=           -205.6126
   XY=             -2.5444   XZ=             16.3171   YZ=             -0.7496

 Normal termination of Gaussian 09 at Sat Feb 24 07:50:32 2018.
