 Gaussian 09, Revision D.01,
 Gaussian 09:  ES64L-G09RevD.01 24-Apr-2013

 ----------------------------------------------------------------------
 #M06/def2SVP denfit opt=(modredundant,maxcyc=1000) scrf=(SMD,solvent=b
 enzene)
 ----------------------------------------------------------------------

 ------------------------------------------------------
 Sub-10-CF3-11-CF3-5-CF3-8-CF3/R/ts2 step 2 (attempt 1)
 ------------------------------------------------------
 Symbolic Z-matrix:
 Charge =  0 Multiplicity = 1

 SCF Done:  E(RM06) =  -2604.62526374     A.U. after   16 cycles
 SCF Done:  E(RM06) =  -2604.62934293     A.U. after   13 cycles
 SCF Done:  E(RM06) =  -2604.62542584     A.U. after   15 cycles
 SCF Done:  E(RM06) =  -2604.63068177     A.U. after   11 cycles
 SCF Done:  E(RM06) =  -2604.62996600     A.U. after   13 cycles
 SCF Done:  E(RM06) =  -2604.63180540     A.U. after    9 cycles
 SCF Done:  E(RM06) =  -2604.63232920     A.U. after   12 cycles
 SCF Done:  E(RM06) =  -2604.63225797     A.U. after   12 cycles
 SCF Done:  E(RM06) =  -2604.63281483     A.U. after    9 cycles
 SCF Done:  E(RM06) =  -2604.63294098     A.U. after   12 cycles
 SCF Done:  E(RM06) =  -2604.63382426     A.U. after   10 cycles
 SCF Done:  E(RM06) =  -2604.63382614     A.U. after   10 cycles
 SCF Done:  E(RM06) =  -2604.63383085     A.U. after   11 cycles
 SCF Done:  E(RM06) =  -2604.63383250     A.U. after   10 cycles
 SCF Done:  E(RM06) =  -2604.63383034     A.U. after   11 cycles
 SCF Done:  E(RM06) =  -2604.63383215     A.U. after    9 cycles
 SCF Done:  E(RM06) =  -2604.63383562     A.U. after   10 cycles
 SCF Done:  E(RM06) =  -2604.63383468     A.U. after   10 cycles
 SCF Done:  E(RM06) =  -2604.63383499     A.U. after    8 cycles
 SCF Done:  E(RM06) =  -2604.63383495     A.U. after    7 cycles
 Optimization completed.
    -- Stationary point found.

                         Standard orientation:
 ---------------------------------------------------------------------
 Center     Atomic      Atomic             Coordinates (Angstroms)
 Number     Number       Type             X           Y           Z
 ---------------------------------------------------------------------
      1         45           0       -0.006095    0.849628    0.525519
      2          6           0        0.175877    0.407851    2.458605
      3          8           0        0.287614    0.184353    3.574832
      4         15           0        1.775632   -0.376511   -0.159059
      5          6           0        2.712330    0.169426   -1.710003
      6          6           0        1.201677   -2.065991   -0.672930
      7         15           0       -1.349133   -0.931344   -0.278445
      8          6           0       -2.795205   -0.884024   -1.496743
      9          6           0       -0.214256   -2.052762   -1.232891
     10          6           0        3.254396   -0.867874    0.918156
     11          6           0       -2.080809   -2.163557    0.954085
     12          1           0       -2.338958    3.184882   -1.454055
     13          1           0       -0.225947   -1.655806   -2.264232
     14          1           0       -0.630118   -3.073088   -1.283903
     15          1           0        1.913159   -2.521684   -1.381869
     16          1           0        1.239135   -2.670645    0.252022
     17          1           0       -3.109203    1.995748   -0.361653
     18          1           0       -3.276860    3.735806   -0.050092
     19          6           0       -2.571800    2.957757   -0.402691
     20          6           0       -1.360403    2.964074    0.510297
     21          6           0       -1.848322    2.684556    1.935305
     22          1           0       -1.045763    2.741431    2.686496
     23          1           0       -2.378853    1.725195    2.042780
     24          1           0       -2.576086    3.483931    2.189918
     25          6           0       -0.648267    4.303529    0.518556
     26          1           0        0.260731    4.277231    1.141823
     27          1           0       -0.369903    4.655329   -0.486074
     28          1           0       -1.327653    5.061684    0.954658
     29          6           0       -0.093693    2.113822   -0.845539
     30          8           0        0.034609    2.667131   -1.860741
     31          9           0        3.973915   -1.863041    0.409882
     32          9           0        2.799899   -1.268983    2.103327
     33          9           0        4.056776    0.171336    1.103993
     34          9           0       -2.762802   -3.165599    0.407716
     35          9           0       -2.881942   -1.544587    1.813343
     36          9           0       -1.065215   -2.693550    1.643467
     37          9           0        3.230433    1.377622   -1.563730
     38          9           0        1.839765    0.202183   -2.717019
     39          9           0        3.694296   -0.660197   -2.052927
     40          9           0       -3.029789   -2.033711   -2.120170
     41          9           0       -2.526135    0.029036   -2.428209
     42          9           0       -3.909622   -0.524747   -0.865180
 ---------------------------------------------------------------------

 The electronic state is 1-A.
 Alpha  occ. eigenvalues --  -77.29055 -77.28162 -24.84085 -24.84050 -24.84018
 Alpha  occ. eigenvalues --  -24.84010 -24.83942 -24.83893 -24.83891 -24.83871
 Alpha  occ. eigenvalues --  -24.83802 -24.83775 -24.83730 -24.83674 -19.30268
 Alpha  occ. eigenvalues --  -19.26140 -10.52043 -10.51797 -10.51783 -10.51663
 Alpha  occ. eigenvalues --  -10.37034 -10.36120 -10.29711 -10.29680 -10.29416
 Alpha  occ. eigenvalues --  -10.24728 -10.24197 -10.24018  -6.73761  -6.72906
 Alpha  occ. eigenvalues --   -4.85960  -4.85852  -4.85540  -4.85110  -4.85012
 Alpha  occ. eigenvalues --   -4.84644  -3.24739  -2.02932  -2.01133  -1.99418
 Alpha  occ. eigenvalues --   -1.37066  -1.36893  -1.36743  -1.36621  -1.28128
 Alpha  occ. eigenvalues --   -1.27994  -1.27954  -1.27884  -1.27836  -1.27768
 Alpha  occ. eigenvalues --   -1.27702  -1.27613  -1.14950  -1.11122  -0.84649
 Alpha  occ. eigenvalues --   -0.81977  -0.80022  -0.76706  -0.74203  -0.74141
 Alpha  occ. eigenvalues --   -0.71386  -0.69302  -0.69134  -0.68882  -0.65540
 Alpha  occ. eigenvalues --   -0.64693  -0.64557  -0.64506  -0.64434  -0.64326
 Alpha  occ. eigenvalues --   -0.64164  -0.64123  -0.63355  -0.62293  -0.62006
 Alpha  occ. eigenvalues --   -0.59639  -0.57628  -0.56571  -0.53669  -0.53202
 Alpha  occ. eigenvalues --   -0.52431  -0.52298  -0.52182  -0.52078  -0.51821
 Alpha  occ. eigenvalues --   -0.51768  -0.51652  -0.51601  -0.50162  -0.49742
 Alpha  occ. eigenvalues --   -0.49523  -0.48994  -0.48807  -0.48678  -0.48471
 Alpha  occ. eigenvalues --   -0.48316  -0.48073  -0.47865  -0.47477  -0.47334
 Alpha  occ. eigenvalues --   -0.47045  -0.46980  -0.46077  -0.45915  -0.45840
 Alpha  occ. eigenvalues --   -0.45692  -0.45644  -0.45260  -0.44931  -0.43668
 Alpha  occ. eigenvalues --   -0.43240  -0.41335  -0.39481  -0.38995  -0.38932
 Alpha  occ. eigenvalues --   -0.38792  -0.38148  -0.37782  -0.37343  -0.37161
 Alpha  occ. eigenvalues --   -0.36124  -0.35202  -0.34653  -0.30370  -0.28648
 Alpha  occ. eigenvalues --   -0.28083  -0.23286  -0.21453
 Alpha virt. eigenvalues --   -0.05558  -0.02652  -0.01827  -0.00856   0.00573
 Alpha virt. eigenvalues --    0.01359   0.01831   0.02075   0.04066   0.04627
 Alpha virt. eigenvalues --    0.05870   0.06484   0.07648   0.07859   0.08442

 Mulliken charges:
               1
     1  Rh  -0.130432
     2  C    0.057002
     3  O   -0.063696
     4  P    0.029403
     5  C    0.527003
     6  C   -0.141138
     7  P   -0.025824
     8  C    0.530255
     9  C   -0.142814
    10  C    0.527896
    11  C    0.534157
    12  H    0.057597
    13  H    0.109503
    14  H    0.106412
    15  H    0.106837
    16  H    0.109547
    17  H    0.043042
    18  H    0.040915
    19  C    0.020664
    20  C   -0.417832
    21  C    0.029884
    22  H    0.050105
    23  H    0.054818
    24  H    0.030028
    25  C    0.022213
    26  H    0.060925
    27  H    0.054480
    28  H    0.036572
    29  C    0.026125
    30  O   -0.123907
    31  F   -0.177495
    32  F   -0.176051
    33  F   -0.170227
    34  F   -0.178023
    35  F   -0.171196
    36  F   -0.189884
    37  F   -0.162214
    38  F   -0.180659
    39  F   -0.180206
    40  F   -0.177756
    41  F   -0.175902
    42  F   -0.180126
 Sum of Mulliken charges =   0.00000

 Dipole moment (field-independent basis, Debye):
    X=             -0.6682    Y=             -1.9327    Z=             -0.4955  Tot=              2.1042
 Quadrupole moment (field-independent basis, Debye-Ang):
   XX=           -200.2831   YY=           -184.6740   ZZ=           -200.6924
   XY=             -8.3157   XZ=             -1.5512   YZ=              9.8273

 Normal termination of Gaussian 09 at Sun Dec  3 12:15:59 2017.
